REMARK  5 active torsions:
REMARK  status: ('A' for Active; 'I' for Inactive)
REMARK    1  A    between atoms: O_1  and  C_4 
REMARK    2  A    between atoms: O_2  and  C_5 
REMARK    3  A    between atoms: O_3  and  C_6 
REMARK    4  A    between atoms: C_4  and  C_5 
REMARK    5  A    between atoms: C_4  and  C_6 
ROOT
HETATM    1  O   UNK     0       0.023  -1.349   0.250  0.00  0.00    -0.391 OA
HETATM    2  H   UNK     0       0.021  -1.303   1.221  0.00  0.00     0.210 HD
ENDROOT
BRANCH   1   3
HETATM    3  C   UNK     0       0.000  -0.012  -0.255  0.00  0.00     0.165 C 
BRANCH   3   4
HETATM    4  C   UNK     0       1.254   0.698   0.236  0.00  0.00     0.198 C 
BRANCH   4   5
HETATM    5  O   UNK     0       2.399  -0.004  -0.237  0.00  0.00    -0.398 OA
HETATM    6  H   UNK     0       2.341  -0.915   0.098  0.00  0.00     0.209 HD
ENDBRANCH   4   5
ENDBRANCH   3   4
BRANCH   3   7
HETATM    7  C   UNK     0      -1.264   0.678   0.245  0.00  0.00     0.198 C 
BRANCH   7   8
HETATM    8  O   UNK     0      -2.413  -0.010  -0.238  0.00  0.00    -0.398 OA
HETATM    9  H   UNK     0      -3.192   0.463   0.102  0.00  0.00     0.209 HD
ENDBRANCH   7   8
ENDBRANCH   3   7
ENDBRANCH   1   3
TORSDOF 5
